V -t * -v 1.0a5 -a 0
A -t * -n 1 -p 0 -o 0x7fffffff -c 30 -a 1
A -t * -h 1 -m 1073741823 -s 0
c -t * -i 0 -n blue
c -t * -i 1 -n red
n -t * -a 4 -s 4 -S UP -v circle -c black -i black
n -t * -a 0 -s 0 -S UP -v circle -c black -i black
n -t * -a 5 -s 5 -S UP -v circle -c black -i black
n -t * -a 1 -s 1 -S UP -v circle -c black -i black
n -t * -a 6 -s 6 -S UP -v circle -c black -i black
n -t * -a 2 -s 2 -S UP -v circle -c black -i black
n -t * -a 7 -s 7 -S UP -v circle -c black -i black
n -t * -a 3 -s 3 -S UP -v circle -c black -i black
l -t * -s 0 -d 2 -S UP -r 2000000 -D 0.02 -c black -o left-up
l -t * -s 1 -d 2 -S UP -r 2000000 -D 0.02 -c black -o right-up
l -t * -s 2 -d 3 -S UP -r 2000000 -D 0.02 -c black -o right-up
l -t * -s 2 -d 7 -S UP -r 2000000 -D 0.02 -c black -o right-down
l -t * -s 3 -d 4 -S UP -r 1000000 -D 0.02 -c black -o up
l -t * -s 4 -d 5 -S UP -r 2000000 -D 0.02 -c black -o right-up
l -t * -s 4 -d 6 -S UP -r 2000000 -D 0.02 -c black -o right-down
l -t * -s 4 -d 7 -S UP -r 1000000 -D 0.02 -c black -o left-down
+ -t 0.000169788487334637 -s 0 -d 2 -p rtProtoDV -e 8 -c 0 -i 1 -a 0 -x {0.1 2.1 -1 ------- null}
- -t 0.000169788487334637 -s 0 -d 2 -p rtProtoDV -e 8 -c 0 -i 1 -a 0 -x {0.1 2.1 -1 ------- null}
h -t 0.000169788487334637 -s 0 -d 2 -p rtProtoDV -e 8 -c 0 -i 1 -a 0 -x {0.1 2.1 -1 ------- null}
+ -t 0.00710233021858257 -s 2 -d 0 -p rtProtoDV -e 8 -c 0 -i 3 -a 0 -x {2.1 0.1 -1 ------- null}
- -t 0.00710233021858257 -s 2 -d 0 -p rtProtoDV -e 8 -c 0 -i 3 -a 0 -x {2.1 0.1 -1 ------- null}
h -t 0.00710233021858257 -s 2 -d 0 -p rtProtoDV -e 8 -c 0 -i 3 -a 0 -x {2.1 0.1 -1 ------- null}
+ -t 0.00710233021858257 -s 2 -d 1 -p rtProtoDV -e 8 -c 0 -i 4 -a 0 -x {2.1 1.2 -1 ------- null}
- -t 0.00710233021858257 -s 2 -d 1 -p rtProtoDV -e 8 -c 0 -i 4 -a 0 -x {2.1 1.2 -1 ------- null}
h -t 0.00710233021858257 -s 2 -d 1 -p rtProtoDV -e 8 -c 0 -i 4 -a 0 -x {2.1 1.2 -1 ------- null}
+ -t 0.00710233021858257 -s 2 -d 3 -p rtProtoDV -e 8 -c 0 -i 5 -a 0 -x {2.1 3.1 -1 ------- null}
- -t 0.00710233021858257 -s 2 -d 3 -p rtProtoDV -e 8 -c 0 -i 5 -a 0 -x {2.1 3.1 -1 ------- null}
h -t 0.00710233021858257 -s 2 -d 3 -p rtProtoDV -e 8 -c 0 -i 5 -a 0 -x {2.1 3.1 -1 ------- null}
+ -t 0.00710233021858257 -s 2 -d 7 -p rtProtoDV -e 8 -c 0 -i 6 -a 0 -x {2.1 7.1 -1 ------- null}
- -t 0.00710233021858257 -s 2 -d 7 -p rtProtoDV -e 8 -c 0 -i 6 -a 0 -x {2.1 7.1 -1 ------- null}
h -t 0.00710233021858257 -s 2 -d 7 -p rtProtoDV -e 8 -c 0 -i 6 -a 0 -x {2.1 7.1 -1 ------- null}
r -t 0.0202017884873346 -s 0 -d 2 -p rtProtoDV -e 8 -c 0 -i 1 -a 0 -x {0.1 2.1 -1 ------- null}
r -t 0.0271343302185826 -s 2 -d 0 -p rtProtoDV -e 8 -c 0 -i 3 -a 0 -x {2.1 0.1 -1 ------- null}
+ -t 0.0271343302185826 -s 0 -d 2 -p rtProtoDV -e 8 -c 0 -i 13 -a 0 -x {0.1 2.1 -1 ------- null}
- -t 0.0271343302185826 -s 0 -d 2 -p rtProtoDV -e 8 -c 0 -i 13 -a 0 -x {0.1 2.1 -1 ------- null}
h -t 0.0271343302185826 -s 0 -d 2 -p rtProtoDV -e 8 -c 0 -i 13 -a 0 -x {0.1 2.1 -1 ------- null}
r -t 0.0271343302185826 -s 2 -d 1 -p rtProtoDV -e 8 -c 0 -i 4 -a 0 -x {2.1 1.2 -1 ------- null}
+ -t 0.0271343302185826 -s 1 -d 2 -p rtProtoDV -e 8 -c 0 -i 14 -a 0 -x {1.2 2.1 -1 ------- null}
- -t 0.0271343302185826 -s 1 -d 2 -p rtProtoDV -e 8 -c 0 -i 14 -a 0 -x {1.2 2.1 -1 ------- null}
h -t 0.0271343302185826 -s 1 -d 2 -p rtProtoDV -e 8 -c 0 -i 14 -a 0 -x {1.2 2.1 -1 ------- null}
r -t 0.0271343302185826 -s 2 -d 3 -p rtProtoDV -e 8 -c 0 -i 5 -a 0 -x {2.1 3.1 -1 ------- null}
+ -t 0.0271343302185826 -s 3 -d 2 -p rtProtoDV -e 8 -c 0 -i 15 -a 0 -x {3.1 2.1 -1 ------- null}
- -t 0.0271343302185826 -s 3 -d 2 -p rtProtoDV -e 8 -c 0 -i 15 -a 0 -x {3.1 2.1 -1 ------- null}
h -t 0.0271343302185826 -s 3 -d 2 -p rtProtoDV -e 8 -c 0 -i 15 -a 0 -x {3.1 2.1 -1 ------- null}
+ -t 0.0271343302185826 -s 3 -d 4 -p rtProtoDV -e 8 -c 0 -i 16 -a 0 -x {3.1 4.1 -1 ------- null}
- -t 0.0271343302185826 -s 3 -d 4 -p rtProtoDV -e 8 -c 0 -i 16 -a 0 -x {3.1 4.1 -1 ------- null}
h -t 0.0271343302185826 -s 3 -d 4 -p rtProtoDV -e 8 -c 0 -i 16 -a 0 -x {3.1 4.1 -1 ------- null}
r -t 0.0271343302185826 -s 2 -d 7 -p rtProtoDV -e 8 -c 0 -i 6 -a 0 -x {2.1 7.1 -1 ------- null}
+ -t 0.0271343302185826 -s 7 -d 2 -p rtProtoDV -e 8 -c 0 -i 17 -a 0 -x {7.1 2.1 -1 ------- null}
- -t 0.0271343302185826 -s 7 -d 2 -p rtProtoDV -e 8 -c 0 -i 17 -a 0 -x {7.1 2.1 -1 ------- null}
h -t 0.0271343302185826 -s 7 -d 2 -p rtProtoDV -e 8 -c 0 -i 17 -a 0 -x {7.1 2.1 -1 ------- null}
+ -t 0.0271343302185826 -s 7 -d 4 -p rtProtoDV -e 8 -c 0 -i 18 -a 0 -x {7.1 4.1 -1 ------- null}
- -t 0.0271343302185826 -s 7 -d 4 -p rtProtoDV -e 8 -c 0 -i 18 -a 0 -x {7.1 4.1 -1 ------- null}
h -t 0.0271343302185826 -s 7 -d 4 -p rtProtoDV -e 8 -c 0 -i 18 -a 0 -x {7.1 4.1 -1 ------- null}
+ -t 0.04406133552271 -s 3 -d 2 -p rtProtoDV -e 8 -c 0 -i 23 -a 0 -x {3.1 2.1 -1 ------- null}
- -t 0.04406133552271 -s 3 -d 2 -p rtProtoDV -e 8 -c 0 -i 23 -a 0 -x {3.1 2.1 -1 ------- null}
h -t 0.04406133552271 -s 3 -d 2 -p rtProtoDV -e 8 -c 0 -i 23 -a 0 -x {3.1 2.1 -1 ------- null}
+ -t 0.04406133552271 -s 3 -d 4 -p rtProtoDV -e 8 -c 0 -i 24 -a 0 -x {3.1 4.1 -1 ------- null}
- -t 0.04406133552271 -s 3 -d 4 -p rtProtoDV -e 8 -c 0 -i 24 -a 0 -x {3.1 4.1 -1 ------- null}
h -t 0.04406133552271 -s 3 -d 4 -p rtProtoDV -e 8 -c 0 -i 24 -a 0 -x {3.1 4.1 -1 ------- null}
r -t 0.0471663302185826 -s 0 -d 2 -p rtProtoDV -e 8 -c 0 -i 13 -a 0 -x {0.1 2.1 -1 ------- null}
r -t 0.0471663302185826 -s 1 -d 2 -p rtProtoDV -e 8 -c 0 -i 14 -a 0 -x {1.2 2.1 -1 ------- null}
r -t 0.0471663302185826 -s 3 -d 2 -p rtProtoDV -e 8 -c 0 -i 15 -a 0 -x {3.1 2.1 -1 ------- null}
+ -t 0.0471663302185826 -s 2 -d 0 -p rtProtoDV -e 8 -c 0 -i 26 -a 0 -x {2.1 0.1 -1 ------- null}
- -t 0.0471663302185826 -s 2 -d 0 -p rtProtoDV -e 8 -c 0 -i 26 -a 0 -x {2.1 0.1 -1 ------- null}
h -t 0.0471663302185826 -s 2 -d 0 -p rtProtoDV -e 8 -c 0 -i 26 -a 0 -x {2.1 0.1 -1 ------- null}
+ -t 0.0471663302185826 -s 2 -d 1 -p rtProtoDV -e 8 -c 0 -i 27 -a 0 -x {2.1 1.2 -1 ------- null}
- -t 0.0471663302185826 -s 2 -d 1 -p rtProtoDV -e 8 -c 0 -i 27 -a 0 -x {2.1 1.2 -1 ------- null}
h -t 0.0471663302185826 -s 2 -d 1 -p rtProtoDV -e 8 -c 0 -i 27 -a 0 -x {2.1 1.2 -1 ------- null}
+ -t 0.0471663302185826 -s 2 -d 3 -p rtProtoDV -e 8 -c 0 -i 28 -a 0 -x {2.1 3.1 -1 ------- null}
- -t 0.0471663302185826 -s 2 -d 3 -p rtProtoDV -e 8 -c 0 -i 28 -a 0 -x {2.1 3.1 -1 ------- null}
h -t 0.0471663302185826 -s 2 -d 3 -p rtProtoDV -e 8 -c 0 -i 28 -a 0 -x {2.1 3.1 -1 ------- null}
+ -t 0.0471663302185826 -s 2 -d 7 -p rtProtoDV -e 8 -c 0 -i 29 -a 0 -x {2.1 7.1 -1 ------- null}
- -t 0.0471663302185826 -s 2 -d 7 -p rtProtoDV -e 8 -c 0 -i 29 -a 0 -x {2.1 7.1 -1 ------- null}
h -t 0.0471663302185826 -s 2 -d 7 -p rtProtoDV -e 8 -c 0 -i 29 -a 0 -x {2.1 7.1 -1 ------- null}
r -t 0.0471663302185826 -s 7 -d 2 -p rtProtoDV -e 8 -c 0 -i 17 -a 0 -x {7.1 2.1 -1 ------- null}
r -t 0.0471983302185826 -s 3 -d 4 -p rtProtoDV -e 8 -c 0 -i 16 -a 0 -x {3.1 4.1 -1 ------- null}
+ -t 0.0471983302185826 -s 4 -d 3 -p rtProtoDV -e 8 -c 0 -i 30 -a 0 -x {4.1 3.1 -1 ------- null}
- -t 0.0471983302185826 -s 4 -d 3 -p rtProtoDV -e 8 -c 0 -i 30 -a 0 -x {4.1 3.1 -1 ------- null}
h -t 0.0471983302185826 -s 4 -d 3 -p rtProtoDV -e 8 -c 0 -i 30 -a 0 -x {4.1 3.1 -1 ------- null}
+ -t 0.0471983302185826 -s 4 -d 5 -p rtProtoDV -e 8 -c 0 -i 31 -a 0 -x {4.1 5.1 -1 ------- null}
- -t 0.0471983302185826 -s 4 -d 5 -p rtProtoDV -e 8 -c 0 -i 31 -a 0 -x {4.1 5.1 -1 ------- null}
h -t 0.0471983302185826 -s 4 -d 5 -p rtProtoDV -e 8 -c 0 -i 31 -a 0 -x {4.1 5.1 -1 ------- null}
+ -t 0.0471983302185826 -s 4 -d 6 -p rtProtoDV -e 8 -c 0 -i 32 -a 0 -x {4.1 6.2 -1 ------- null}
- -t 0.0471983302185826 -s 4 -d 6 -p rtProtoDV -e 8 -c 0 -i 32 -a 0 -x {4.1 6.2 -1 ------- null}
h -t 0.0471983302185826 -s 4 -d 6 -p rtProtoDV -e 8 -c 0 -i 32 -a 0 -x {4.1 6.2 -1 ------- null}
+ -t 0.0471983302185826 -s 4 -d 7 -p rtProtoDV -e 8 -c 0 -i 33 -a 0 -x {4.1 7.1 -1 ------- null}
- -t 0.0471983302185826 -s 4 -d 7 -p rtProtoDV -e 8 -c 0 -i 33 -a 0 -x {4.1 7.1 -1 ------- null}
h -t 0.0471983302185826 -s 4 -d 7 -p rtProtoDV -e 8 -c 0 -i 33 -a 0 -x {4.1 7.1 -1 ------- null}
r -t 0.0471983302185826 -s 7 -d 4 -p rtProtoDV -e 8 -c 0 -i 18 -a 0 -x {7.1 4.1 -1 ------- null}
r -t 0.06409333552271 -s 3 -d 2 -p rtProtoDV -e 8 -c 0 -i 23 -a 0 -x {3.1 2.1 -1 ------- null}
r -t 0.06412533552271 -s 3 -d 4 -p rtProtoDV -e 8 -c 0 -i 24 -a 0 -x {3.1 4.1 -1 ------- null}
r -t 0.0671983302185826 -s 2 -d 0 -p rtProtoDV -e 8 -c 0 -i 26 -a 0 -x {2.1 0.1 -1 ------- null}
+ -t 0.0671983302185826 -s 0 -d 2 -p rtProtoDV -e 8 -c 0 -i 39 -a 0 -x {0.1 2.1 -1 ------- null}
- -t 0.0671983302185826 -s 0 -d 2 -p rtProtoDV -e 8 -c 0 -i 39 -a 0 -x {0.1 2.1 -1 ------- null}
h -t 0.0671983302185826 -s 0 -d 2 -p rtProtoDV -e 8 -c 0 -i 39 -a 0 -x {0.1 2.1 -1 ------- null}
r -t 0.0671983302185826 -s 2 -d 1 -p rtProtoDV -e 8 -c 0 -i 27 -a 0 -x {2.1 1.2 -1 ------- null}
+ -t 0.0671983302185826 -s 1 -d 2 -p rtProtoDV -e 8 -c 0 -i 40 -a 0 -x {1.2 2.1 -1 ------- null}
- -t 0.0671983302185826 -s 1 -d 2 -p rtProtoDV -e 8 -c 0 -i 40 -a 0 -x {1.2 2.1 -1 ------- null}
h -t 0.0671983302185826 -s 1 -d 2 -p rtProtoDV -e 8 -c 0 -i 40 -a 0 -x {1.2 2.1 -1 ------- null}
r -t 0.0671983302185826 -s 2 -d 3 -p rtProtoDV -e 8 -c 0 -i 28 -a 0 -x {2.1 3.1 -1 ------- null}
r -t 0.0671983302185826 -s 2 -d 7 -p rtProtoDV -e 8 -c 0 -i 29 -a 0 -x {2.1 7.1 -1 ------- null}
r -t 0.0672303302185826 -s 4 -d 5 -p rtProtoDV -e 8 -c 0 -i 31 -a 0 -x {4.1 5.1 -1 ------- null}
+ -t 0.0672303302185826 -s 5 -d 4 -p rtProtoDV -e 8 -c 0 -i 41 -a 0 -x {5.1 4.1 -1 ------- null}
- -t 0.0672303302185826 -s 5 -d 4 -p rtProtoDV -e 8 -c 0 -i 41 -a 0 -x {5.1 4.1 -1 ------- null}
h -t 0.0672303302185826 -s 5 -d 4 -p rtProtoDV -e 8 -c 0 -i 41 -a 0 -x {5.1 4.1 -1 ------- null}
r -t 0.0672303302185826 -s 4 -d 6 -p rtProtoDV -e 8 -c 0 -i 32 -a 0 -x {4.1 6.2 -1 ------- null}
+ -t 0.0672303302185826 -s 6 -d 4 -p rtProtoDV -e 8 -c 0 -i 42 -a 0 -x {6.2 4.1 -1 ------- null}
- -t 0.0672303302185826 -s 6 -d 4 -p rtProtoDV -e 8 -c 0 -i 42 -a 0 -x {6.2 4.1 -1 ------- null}
h -t 0.0672303302185826 -s 6 -d 4 -p rtProtoDV -e 8 -c 0 -i 42 -a 0 -x {6.2 4.1 -1 ------- null}
r -t 0.0672623302185826 -s 4 -d 3 -p rtProtoDV -e 8 -c 0 -i 30 -a 0 -x {4.1 3.1 -1 ------- null}
+ -t 0.0672623302185826 -s 3 -d 2 -p rtProtoDV -e 8 -c 0 -i 43 -a 0 -x {3.1 2.1 -1 ------- null}
- -t 0.0672623302185826 -s 3 -d 2 -p rtProtoDV -e 8 -c 0 -i 43 -a 0 -x {3.1 2.1 -1 ------- null}
h -t 0.0672623302185826 -s 3 -d 2 -p rtProtoDV -e 8 -c 0 -i 43 -a 0 -x {3.1 2.1 -1 ------- null}
+ -t 0.0672623302185826 -s 3 -d 4 -p rtProtoDV -e 8 -c 0 -i 44 -a 0 -x {3.1 4.1 -1 ------- null}
- -t 0.0672623302185826 -s 3 -d 4 -p rtProtoDV -e 8 -c 0 -i 44 -a 0 -x {3.1 4.1 -1 ------- null}
h -t 0.0672623302185826 -s 3 -d 4 -p rtProtoDV -e 8 -c 0 -i 44 -a 0 -x {3.1 4.1 -1 ------- null}
r -t 0.0672623302185826 -s 4 -d 7 -p rtProtoDV -e 8 -c 0 -i 33 -a 0 -x {4.1 7.1 -1 ------- null}
+ -t 0.0672623302185826 -s 7 -d 2 -p rtProtoDV -e 8 -c 0 -i 45 -a 0 -x {7.1 2.1 -1 ------- null}
- -t 0.0672623302185826 -s 7 -d 2 -p rtProtoDV -e 8 -c 0 -i 45 -a 0 -x {7.1 2.1 -1 ------- null}
h -t 0.0672623302185826 -s 7 -d 2 -p rtProtoDV -e 8 -c 0 -i 45 -a 0 -x {7.1 2.1 -1 ------- null}
+ -t 0.0672623302185826 -s 7 -d 4 -p rtProtoDV -e 8 -c 0 -i 46 -a 0 -x {7.1 4.1 -1 ------- null}
- -t 0.0672623302185826 -s 7 -d 4 -p rtProtoDV -e 8 -c 0 -i 46 -a 0 -x {7.1 4.1 -1 ------- null}
h -t 0.0672623302185826 -s 7 -d 4 -p rtProtoDV -e 8 -c 0 -i 46 -a 0 -x {7.1 4.1 -1 ------- null}
r -t 0.0872303302185826 -s 0 -d 2 -p rtProtoDV -e 8 -c 0 -i 39 -a 0 -x {0.1 2.1 -1 ------- null}
r -t 0.0872303302185826 -s 1 -d 2 -p rtProtoDV -e 8 -c 0 -i 40 -a 0 -x {1.2 2.1 -1 ------- null}
r -t 0.0872623302185826 -s 5 -d 4 -p rtProtoDV -e 8 -c 0 -i 41 -a 0 -x {5.1 4.1 -1 ------- null}
r -t 0.0872623302185826 -s 6 -d 4 -p rtProtoDV -e 8 -c 0 -i 42 -a 0 -x {6.2 4.1 -1 ------- null}
r -t 0.0872943302185826 -s 3 -d 2 -p rtProtoDV -e 8 -c 0 -i 43 -a 0 -x {3.1 2.1 -1 ------- null}
+ -t 0.0872943302185826 -s 2 -d 0 -p rtProtoDV -e 8 -c 0 -i 53 -a 0 -x {2.1 0.1 -1 ------- null}
- -t 0.0872943302185826 -s 2 -d 0 -p rtProtoDV -e 8 -c 0 -i 53 -a 0 -x {2.1 0.1 -1 ------- null}
h -t 0.0872943302185826 -s 2 -d 0 -p rtProtoDV -e 8 -c 0 -i 53 -a 0 -x {2.1 0.1 -1 ------- null}
+ -t 0.0872943302185826 -s 2 -d 1 -p rtProtoDV -e 8 -c 0 -i 54 -a 0 -x {2.1 1.2 -1 ------- null}
- -t 0.0872943302185826 -s 2 -d 1 -p rtProtoDV -e 8 -c 0 -i 54 -a 0 -x {2.1 1.2 -1 ------- null}
h -t 0.0872943302185826 -s 2 -d 1 -p rtProtoDV -e 8 -c 0 -i 54 -a 0 -x {2.1 1.2 -1 ------- null}
+ -t 0.0872943302185826 -s 2 -d 3 -p rtProtoDV -e 8 -c 0 -i 55 -a 0 -x {2.1 3.1 -1 ------- null}
- -t 0.0872943302185826 -s 2 -d 3 -p rtProtoDV -e 8 -c 0 -i 55 -a 0 -x {2.1 3.1 -1 ------- null}
h -t 0.0872943302185826 -s 2 -d 3 -p rtProtoDV -e 8 -c 0 -i 55 -a 0 -x {2.1 3.1 -1 ------- null}
+ -t 0.0872943302185826 -s 2 -d 7 -p rtProtoDV -e 8 -c 0 -i 56 -a 0 -x {2.1 7.1 -1 ------- null}
- -t 0.0872943302185826 -s 2 -d 7 -p rtProtoDV -e 8 -c 0 -i 56 -a 0 -x {2.1 7.1 -1 ------- null}
h -t 0.0872943302185826 -s 2 -d 7 -p rtProtoDV -e 8 -c 0 -i 56 -a 0 -x {2.1 7.1 -1 ------- null}
r -t 0.0872943302185826 -s 7 -d 2 -p rtProtoDV -e 8 -c 0 -i 45 -a 0 -x {7.1 2.1 -1 ------- null}
r -t 0.0873263302185826 -s 3 -d 4 -p rtProtoDV -e 8 -c 0 -i 44 -a 0 -x {3.1 4.1 -1 ------- null}
r -t 0.0873263302185826 -s 7 -d 4 -p rtProtoDV -e 8 -c 0 -i 46 -a 0 -x {7.1 4.1 -1 ------- null}
r -t 0.107326330218583 -s 2 -d 0 -p rtProtoDV -e 8 -c 0 -i 53 -a 0 -x {2.1 0.1 -1 ------- null}
+ -t 0.107326330218583 -s 0 -d 2 -p rtProtoDV -e 8 -c 0 -i 62 -a 0 -x {0.1 2.1 -1 ------- null}
- -t 0.107326330218583 -s 0 -d 2 -p rtProtoDV -e 8 -c 0 -i 62 -a 0 -x {0.1 2.1 -1 ------- null}
h -t 0.107326330218583 -s 0 -d 2 -p rtProtoDV -e 8 -c 0 -i 62 -a 0 -x {0.1 2.1 -1 ------- null}
r -t 0.107326330218583 -s 2 -d 1 -p rtProtoDV -e 8 -c 0 -i 54 -a 0 -x {2.1 1.2 -1 ------- null}
+ -t 0.107326330218583 -s 1 -d 2 -p rtProtoDV -e 8 -c 0 -i 63 -a 0 -x {1.2 2.1 -1 ------- null}
- -t 0.107326330218583 -s 1 -d 2 -p rtProtoDV -e 8 -c 0 -i 63 -a 0 -x {1.2 2.1 -1 ------- null}
h -t 0.107326330218583 -s 1 -d 2 -p rtProtoDV -e 8 -c 0 -i 63 -a 0 -x {1.2 2.1 -1 ------- null}
r -t 0.107326330218583 -s 2 -d 3 -p rtProtoDV -e 8 -c 0 -i 55 -a 0 -x {2.1 3.1 -1 ------- null}
r -t 0.107326330218583 -s 2 -d 7 -p rtProtoDV -e 8 -c 0 -i 56 -a 0 -x {2.1 7.1 -1 ------- null}
+ -t 0.10875 -s 1 -d 2 -p cbr -e 210 -c 2 -i 64 -a 2 -x {1.0 6.0 29 ------- null}
- -t 0.10875 -s 1 -d 2 -p cbr -e 210 -c 2 -i 64 -a 2 -x {1.0 6.0 29 ------- null}
h -t 0.10875 -s 1 -d 2 -p cbr -e 210 -c 2 -i 64 -a 2 -x {1.0 6.0 -1 ------- null}
+ -t 0.1125 -s 1 -d 2 -p cbr -e 210 -c 2 -i 65 -a 2 -x {1.0 6.0 30 ------- null}
- -t 0.1125 -s 1 -d 2 -p cbr -e 210 -c 2 -i 65 -a 2 -x {1.0 6.0 30 ------- null}
h -t 0.1125 -s 1 -d 2 -p cbr -e 210 -c 2 -i 65 -a 2 -x {1.0 6.0 -1 ------- null}
+ -t 0.11625 -s 1 -d 2 -p cbr -e 210 -c 2 -i 66 -a 2 -x {1.0 6.0 31 ------- null}
- -t 0.11625 -s 1 -d 2 -p cbr -e 210 -c 2 -i 66 -a 2 -x {1.0 6.0 31 ------- null}
h -t 0.11625 -s 1 -d 2 -p cbr -e 210 -c 2 -i 66 -a 2 -x {1.0 6.0 -1 ------- null}
+ -t 0.12 -s 1 -d 2 -p cbr -e 210 -c 2 -i 67 -a 2 -x {1.0 6.0 32 ------- null}
- -t 0.12 -s 1 -d 2 -p cbr -e 210 -c 2 -i 67 -a 2 -x {1.0 6.0 32 ------- null}
h -t 0.12 -s 1 -d 2 -p cbr -e 210 -c 2 -i 67 -a 2 -x {1.0 6.0 -1 ------- null}
+ -t 0.12375 -s 1 -d 2 -p cbr -e 210 -c 2 -i 68 -a 2 -x {1.0 6.0 33 ------- null}
- -t 0.12375 -s 1 -d 2 -p cbr -e 210 -c 2 -i 68 -a 2 -x {1.0 6.0 33 ------- null}
h -t 0.12375 -s 1 -d 2 -p cbr -e 210 -c 2 -i 68 -a 2 -x {1.0 6.0 -1 ------- null}
r -t 0.127358330218583 -s 0 -d 2 -p rtProtoDV -e 8 -c 0 -i 62 -a 0 -x {0.1 2.1 -1 ------- null}
r -t 0.127358330218583 -s 1 -d 2 -p rtProtoDV -e 8 -c 0 -i 63 -a 0 -x {1.2 2.1 -1 ------- null}
+ -t 0.1275 -s 1 -d 2 -p cbr -e 210 -c 2 -i 69 -a 2 -x {1.0 6.0 34 ------- null}
- -t 0.1275 -s 1 -d 2 -p cbr -e 210 -c 2 -i 69 -a 2 -x {1.0 6.0 34 ------- null}
h -t 0.1275 -s 1 -d 2 -p cbr -e 210 -c 2 -i 69 -a 2 -x {1.0 6.0 -1 ------- null}
r -t 0.12959 -s 1 -d 2 -p cbr -e 210 -c 2 -i 64 -a 2 -x {1.0 6.0 29 ------- null}
+ -t 0.12959 -s 2 -d 3 -p cbr -e 210 -c 2 -i 64 -a 2 -x {1.0 6.0 29 ------- null}
- -t 0.12959 -s 2 -d 3 -p cbr -e 210 -c 2 -i 64 -a 2 -x {1.0 6.0 29 ------- null}
h -t 0.12959 -s 2 -d 3 -p cbr -e 210 -c 2 -i 64 -a 2 -x {1.0 6.0 -1 ------- null}
+ -t 0.13125 -s 1 -d 2 -p cbr -e 210 -c 2 -i 70 -a 2 -x {1.0 6.0 35 ------- null}
- -t 0.13125 -s 1 -d 2 -p cbr -e 210 -c 2 -i 70 -a 2 -x {1.0 6.0 35 ------- null}
h -t 0.13125 -s 1 -d 2 -p cbr -e 210 -c 2 -i 70 -a 2 -x {1.0 6.0 -1 ------- null}
r -t 0.13334 -s 1 -d 2 -p cbr -e 210 -c 2 -i 65 -a 2 -x {1.0 6.0 30 ------- null}
+ -t 0.13334 -s 2 -d 3 -p cbr -e 210 -c 2 -i 65 -a 2 -x {1.0 6.0 30 ------- null}
- -t 0.13334 -s 2 -d 3 -p cbr -e 210 -c 2 -i 65 -a 2 -x {1.0 6.0 30 ------- null}
h -t 0.13334 -s 2 -d 3 -p cbr -e 210 -c 2 -i 65 -a 2 -x {1.0 6.0 -1 ------- null}
+ -t 0.135 -s 1 -d 2 -p cbr -e 210 -c 2 -i 71 -a 2 -x {1.0 6.0 36 ------- null}
- -t 0.135 -s 1 -d 2 -p cbr -e 210 -c 2 -i 71 -a 2 -x {1.0 6.0 36 ------- null}
h -t 0.135 -s 1 -d 2 -p cbr -e 210 -c 2 -i 71 -a 2 -x {1.0 6.0 -1 ------- null}
r -t 0.13709 -s 1 -d 2 -p cbr -e 210 -c 2 -i 66 -a 2 -x {1.0 6.0 31 ------- null}
+ -t 0.13709 -s 2 -d 3 -p cbr -e 210 -c 2 -i 66 -a 2 -x {1.0 6.0 31 ------- null}
- -t 0.13709 -s 2 -d 3 -p cbr -e 210 -c 2 -i 66 -a 2 -x {1.0 6.0 31 ------- null}
h -t 0.13709 -s 2 -d 3 -p cbr -e 210 -c 2 -i 66 -a 2 -x {1.0 6.0 -1 ------- null}
+ -t 0.13875 -s 1 -d 2 -p cbr -e 210 -c 2 -i 72 -a 2 -x {1.0 6.0 37 ------- null}
- -t 0.13875 -s 1 -d 2 -p cbr -e 210 -c 2 -i 72 -a 2 -x {1.0 6.0 37 ------- null}
h -t 0.13875 -s 1 -d 2 -p cbr -e 210 -c 2 -i 72 -a 2 -x {1.0 6.0 -1 ------- null}
r -t 0.14084 -s 1 -d 2 -p cbr -e 210 -c 2 -i 67 -a 2 -x {1.0 6.0 32 ------- null}
+ -t 0.14084 -s 2 -d 3 -p cbr -e 210 -c 2 -i 67 -a 2 -x {1.0 6.0 32 ------- null}
- -t 0.14084 -s 2 -d 3 -p cbr -e 210 -c 2 -i 67 -a 2 -x {1.0 6.0 32 ------- null}
h -t 0.14084 -s 2 -d 3 -p cbr -e 210 -c 2 -i 67 -a 2 -x {1.0 6.0 -1 ------- null}
+ -t 0.1425 -s 1 -d 2 -p cbr -e 210 -c 2 -i 73 -a 2 -x {1.0 6.0 38 ------- null}
- -t 0.1425 -s 1 -d 2 -p cbr -e 210 -c 2 -i 73 -a 2 -x {1.0 6.0 38 ------- null}
h -t 0.1425 -s 1 -d 2 -p cbr -e 210 -c 2 -i 73 -a 2 -x {1.0 6.0 -1 ------- null}
r -t 0.14459 -s 1 -d 2 -p cbr -e 210 -c 2 -i 68 -a 2 -x {1.0 6.0 33 ------- null}
+ -t 0.14459 -s 2 -d 3 -p cbr -e 210 -c 2 -i 68 -a 2 -x {1.0 6.0 33 ------- null}
- -t 0.14459 -s 2 -d 3 -p cbr -e 210 -c 2 -i 68 -a 2 -x {1.0 6.0 33 ------- null}
h -t 0.14459 -s 2 -d 3 -p cbr -e 210 -c 2 -i 68 -a 2 -x {1.0 6.0 -1 ------- null}
+ -t 0.14625 -s 1 -d 2 -p cbr -e 210 -c 2 -i 74 -a 2 -x {1.0 6.0 39 ------- null}
- -t 0.14625 -s 1 -d 2 -p cbr -e 210 -c 2 -i 74 -a 2 -x {1.0 6.0 39 ------- null}
h -t 0.14625 -s 1 -d 2 -p cbr -e 210 -c 2 -i 74 -a 2 -x {1.0 6.0 -1 ------- null}
r -t 0.14834 -s 1 -d 2 -p cbr -e 210 -c 2 -i 69 -a 2 -x {1.0 6.0 34 ------- null}
+ -t 0.14834 -s 2 -d 3 -p cbr -e 210 -c 2 -i 69 -a 2 -x {1.0 6.0 34 ------- null}
- -t 0.14834 -s 2 -d 3 -p cbr -e 210 -c 2 -i 69 -a 2 -x {1.0 6.0 34 ------- null}
h -t 0.14834 -s 2 -d 3 -p cbr -e 210 -c 2 -i 69 -a 2 -x {1.0 6.0 -1 ------- null}
+ -t 0.15 -s 1 -d 2 -p cbr -e 210 -c 2 -i 75 -a 2 -x {1.0 6.0 40 ------- null}
- -t 0.15 -s 1 -d 2 -p cbr -e 210 -c 2 -i 75 -a 2 -x {1.0 6.0 40 ------- null}
h -t 0.15 -s 1 -d 2 -p cbr -e 210 -c 2 -i 75 -a 2 -x {1.0 6.0 -1 ------- null}
r -t 0.15043 -s 2 -d 3 -p cbr -e 210 -c 2 -i 64 -a 2 -x {1.0 6.0 29 ------- null}
+ -t 0.15043 -s 3 -d 4 -p cbr -e 210 -c 2 -i 64 -a 2 -x {1.0 6.0 29 ------- null}
- -t 0.15043 -s 3 -d 4 -p cbr -e 210 -c 2 -i 64 -a 2 -x {1.0 6.0 29 ------- null}
h -t 0.15043 -s 3 -d 4 -p cbr -e 210 -c 2 -i 64 -a 2 -x {1.0 6.0 -1 ------- null}
r -t 0.15209 -s 1 -d 2 -p cbr -e 210 -c 2 -i 70 -a 2 -x {1.0 6.0 35 ------- null}
+ -t 0.15209 -s 2 -d 3 -p cbr -e 210 -c 2 -i 70 -a 2 -x {1.0 6.0 35 ------- null}
- -t 0.15209 -s 2 -d 3 -p cbr -e 210 -c 2 -i 70 -a 2 -x {1.0 6.0 35 ------- null}
h -t 0.15209 -s 2 -d 3 -p cbr -e 210 -c 2 -i 70 -a 2 -x {1.0 6.0 -1 ------- null}
+ -t 0.15375 -s 1 -d 2 -p cbr -e 210 -c 2 -i 76 -a 2 -x {1.0 6.0 41 ------- null}
- -t 0.15375 -s 1 -d 2 -p cbr -e 210 -c 2 -i 76 -a 2 -x {1.0 6.0 41 ------- null}
h -t 0.15375 -s 1 -d 2 -p cbr -e 210 -c 2 -i 76 -a 2 -x {1.0 6.0 -1 ------- null}
r -t 0.15418 -s 2 -d 3 -p cbr -e 210 -c 2 -i 65 -a 2 -x {1.0 6.0 30 ------- null}
+ -t 0.15418 -s 3 -d 4 -p cbr -e 210 -c 2 -i 65 -a 2 -x {1.0 6.0 30 ------- null}
- -t 0.15418 -s 3 -d 4 -p cbr -e 210 -c 2 -i 65 -a 2 -x {1.0 6.0 30 ------- null}
h -t 0.15418 -s 3 -d 4 -p cbr -e 210 -c 2 -i 65 -a 2 -x {1.0 6.0 -1 ------- null}
r -t 0.15584 -s 1 -d 2 -p cbr -e 210 -c 2 -i 71 -a 2 -x {1.0 6.0 36 ------- null}
+ -t 0.15584 -s 2 -d 3 -p cbr -e 210 -c 2 -i 71 -a 2 -x {1.0 6.0 36 ------- null}
- -t 0.15584 -s 2 -d 3 -p cbr -e 210 -c 2 -i 71 -a 2 -x {1.0 6.0 36 ------- null}
h -t 0.15584 -s 2 -d 3 -p cbr -e 210 -c 2 -i 71 -a 2 -x {1.0 6.0 -1 ------- null}
+ -t 0.156480885882155 -s 6 -d 4 -p rtProtoDV -e 8 -c 0 -i 77 -a 0 -x {6.2 4.1 -1 ------- null}
- -t 0.156480885882155 -s 6 -d 4 -p rtProtoDV -e 8 -c 0 -i 77 -a 0 -x {6.2 4.1 -1 ------- null}
h -t 0.156480885882155 -s 6 -d 4 -p rtProtoDV -e 8 -c 0 -i 77 -a 0 -x {6.2 4.1 -1 ------- null}
+ -t 0.1575 -s 1 -d 2 -p cbr -e 210 -c 2 -i 78 -a 2 -x {1.0 6.0 42 ------- null}
- -t 0.1575 -s 1 -d 2 -p cbr -e 210 -c 2 -i 78 -a 2 -x {1.0 6.0 42 ------- null}
h -t 0.1575 -s 1 -d 2 -p cbr -e 210 -c 2 -i 78 -a 2 -x {1.0 6.0 -1 ------- null}
r -t 0.15793 -s 2 -d 3 -p cbr -e 210 -c 2 -i 66 -a 2 -x {1.0 6.0 31 ------- null}
+ -t 0.15793 -s 3 -d 4 -p cbr -e 210 -c 2 -i 66 -a 2 -x {1.0 6.0 31 ------- null}
- -t 0.15793 -s 3 -d 4 -p cbr -e 210 -c 2 -i 66 -a 2 -x {1.0 6.0 31 ------- null}
h -t 0.15793 -s 3 -d 4 -p cbr -e 210 -c 2 -i 66 -a 2 -x {1.0 6.0 -1 ------- null}
r -t 0.15959 -s 1 -d 2 -p cbr -e 210 -c 2 -i 72 -a 2 -x {1.0 6.0 37 ------- null}
+ -t 0.15959 -s 2 -d 3 -p cbr -e 210 -c 2 -i 72 -a 2 -x {1.0 6.0 37 ------- null}
- -t 0.15959 -s 2 -d 3 -p cbr -e 210 -c 2 -i 72 -a 2 -x {1.0 6.0 37 ------- null}
h -t 0.15959 -s 2 -d 3 -p cbr -e 210 -c 2 -i 72 -a 2 -x {1.0 6.0 -1 ------- null}
+ -t 0.16125 -s 1 -d 2 -p cbr -e 210 -c 2 -i 79 -a 2 -x {1.0 6.0 43 ------- null}
- -t 0.16125 -s 1 -d 2 -p cbr -e 210 -c 2 -i 79 -a 2 -x {1.0 6.0 43 ------- null}
h -t 0.16125 -s 1 -d 2 -p cbr -e 210 -c 2 -i 79 -a 2 -x {1.0 6.0 -1 ------- null}
r -t 0.16168 -s 2 -d 3 -p cbr -e 210 -c 2 -i 67 -a 2 -x {1.0 6.0 32 ------- null}
+ -t 0.16168 -s 3 -d 4 -p cbr -e 210 -c 2 -i 67 -a 2 -x {1.0 6.0 32 ------- null}
- -t 0.16168 -s 3 -d 4 -p cbr -e 210 -c 2 -i 67 -a 2 -x {1.0 6.0 32 ------- null}
h -t 0.16168 -s 3 -d 4 -p cbr -e 210 -c 2 -i 67 -a 2 -x {1.0 6.0 -1 ------- null}
r -t 0.16334 -s 1 -d 2 -p cbr -e 210 -c 2 -i 73 -a 2 -x {1.0 6.0 38 ------- null}
+ -t 0.16334 -s 2 -d 3 -p cbr -e 210 -c 2 -i 73 -a 2 -x {1.0 6.0 38 ------- null}
- -t 0.16334 -s 2 -d 3 -p cbr -e 210 -c 2 -i 73 -a 2 -x {1.0 6.0 38 ------- null}
h -t 0.16334 -s 2 -d 3 -p cbr -e 210 -c 2 -i 73 -a 2 -x {1.0 6.0 -1 ------- null}
+ -t 0.165 -s 1 -d 2 -p cbr -e 210 -c 2 -i 80 -a 2 -x {1.0 6.0 44 ------- null}
- -t 0.165 -s 1 -d 2 -p cbr -e 210 -c 2 -i 80 -a 2 -x {1.0 6.0 44 ------- null}
h -t 0.165 -s 1 -d 2 -p cbr -e 210 -c 2 -i 80 -a 2 -x {1.0 6.0 -1 ------- null}
r -t 0.16543 -s 2 -d 3 -p cbr -e 210 -c 2 -i 68 -a 2 -x {1.0 6.0 33 ------- null}
+ -t 0.16543 -s 3 -d 4 -p cbr -e 210 -c 2 -i 68 -a 2 -x {1.0 6.0 33 ------- null}
- -t 0.16543 -s 3 -d 4 -p cbr -e 210 -c 2 -i 68 -a 2 -x {1.0 6.0 33 ------- null}
h -t 0.16543 -s 3 -d 4 -p cbr -e 210 -c 2 -i 68 -a 2 -x {1.0 6.0 -1 ------- null}
r -t 0.16709 -s 1 -d 2 -p cbr -e 210 -c 2 -i 74 -a 2 -x {1.0 6.0 39 ------- null}
+ -t 0.16709 -s 2 -d 3 -p cbr -e 210 -c 2 -i 74 -a 2 -x {1.0 6.0 39 ------- null}
- -t 0.16709 -s 2 -d 3 -p cbr -e 210 -c 2 -i 74 -a 2 -x {1.0 6.0 39 ------- null}
h -t 0.16709 -s 2 -d 3 -p cbr -e 210 -c 2 -i 74 -a 2 -x {1.0 6.0 -1 ------- null}
+ -t 0.16875 -s 1 -d 2 -p cbr -e 210 -c 2 -i 81 -a 2 -x {1.0 6.0 45 ------- null}
- -t 0.16875 -s 1 -d 2 -p cbr -e 210 -c 2 -i 81 -a 2 -x {1.0 6.0 45 ------- null}
h -t 0.16875 -s 1 -d 2 -p cbr -e 210 -c 2 -i 81 -a 2 -x {1.0 6.0 -1 ------- null}
r -t 0.16918 -s 2 -d 3 -p cbr -e 210 -c 2 -i 69 -a 2 -x {1.0 6.0 34 ------- null}
+ -t 0.16918 -s 3 -d 4 -p cbr -e 210 -c 2 -i 69 -a 2 -x {1.0 6.0 34 ------- null}
- -t 0.16918 -s 3 -d 4 -p cbr -e 210 -c 2 -i 69 -a 2 -x {1.0 6.0 34 ------- null}
h -t 0.16918 -s 3 -d 4 -p cbr -e 210 -c 2 -i 69 -a 2 -x {1.0 6.0 -1 ------- null}
r -t 0.17084 -s 1 -d 2 -p cbr -e 210 -c 2 -i 75 -a 2 -x {1.0 6.0 40 ------- null}
+ -t 0.17084 -s 2 -d 3 -p cbr -e 210 -c 2 -i 75 -a 2 -x {1.0 6.0 40 ------- null}
- -t 0.17084 -s 2 -d 3 -p cbr -e 210 -c 2 -i 75 -a 2 -x {1.0 6.0 40 ------- null}
h -t 0.17084 -s 2 -d 3 -p cbr -e 210 -c 2 -i 75 -a 2 -x {1.0 6.0 -1 ------- null}
r -t 0.17211 -s 3 -d 4 -p cbr -e 210 -c 2 -i 64 -a 2 -x {1.0 6.0 29 ------- null}
+ -t 0.17211 -s 4 -d 6 -p cbr -e 210 -c 2 -i 64 -a 2 -x {1.0 6.0 29 ------- null}
- -t 0.17211 -s 4 -d 6 -p cbr -e 210 -c 2 -i 64 -a 2 -x {1.0 6.0 29 ------- null}
h -t 0.17211 -s 4 -d 6 -p cbr -e 210 -c 2 -i 64 -a 2 -x {1.0 6.0 -1 ------- null}
+ -t 0.1725 -s 1 -d 2 -p cbr -e 210 -c 2 -i 82 -a 2 -x {1.0 6.0 46 ------- null}
- -t 0.1725 -s 1 -d 2 -p cbr -e 210 -c 2 -i 82 -a 2 -x {1.0 6.0 46 ------- null}
h -t 0.1725 -s 1 -d 2 -p cbr -e 210 -c 2 -i 82 -a 2 -x {1.0 6.0 -1 ------- null}
r -t 0.17293 -s 2 -d 3 -p cbr -e 210 -c 2 -i 70 -a 2 -x {1.0 6.0 35 ------- null}
+ -t 0.17293 -s 3 -d 4 -p cbr -e 210 -c 2 -i 70 -a 2 -x {1.0 6.0 35 ------- null}
- -t 0.17293 -s 3 -d 4 -p cbr -e 210 -c 2 -i 70 -a 2 -x {1.0 6.0 35 ------- null}
h -t 0.17293 -s 3 -d 4 -p cbr -e 210 -c 2 -i 70 -a 2 -x {1.0 6.0 -1 ------- null}
r -t 0.17459 -s 1 -d 2 -p cbr -e 210 -c 2 -i 76 -a 2 -x {1.0 6.0 41 ------- null}
+ -t 0.17459 -s 2 -d 3 -p cbr -e 210 -c 2 -i 76 -a 2 -x {1.0 6.0 41 ------- null}
- -t 0.17459 -s 2 -d 3 -p cbr -e 210 -c 2 -i 76 -a 2 -x {1.0 6.0 41 ------- null}
h -t 0.17459 -s 2 -d 3 -p cbr -e 210 -c 2 -i 76 -a 2 -x {1.0 6.0 -1 ------- null}
r -t 0.17586 -s 3 -d 4 -p cbr -e 210 -c 2 -i 65 -a 2 -x {1.0 6.0 30 ------- null}
+ -t 0.17586 -s 4 -d 6 -p cbr -e 210 -c 2 -i 65 -a 2 -x {1.0 6.0 30 ------- null}
- -t 0.17586 -s 4 -d 6 -p cbr -e 210 -c 2 -i 65 -a 2 -x {1.0 6.0 30 ------- null}
h -t 0.17586 -s 4 -d 6 -p cbr -e 210 -c 2 -i 65 -a 2 -x {1.0 6.0 -1 ------- null}
+ -t 0.17625 -s 1 -d 2 -p cbr -e 210 -c 2 -i 83 -a 2 -x {1.0 6.0 47 ------- null}
- -t 0.17625 -s 1 -d 2 -p cbr -e 210 -c 2 -i 83 -a 2 -x {1.0 6.0 47 ------- null}
h -t 0.17625 -s 1 -d 2 -p cbr -e 210 -c 2 -i 83 -a 2 -x {1.0 6.0 -1 ------- null}
r -t 0.176512885882155 -s 6 -d 4 -p rtProtoDV -e 8 -c 0 -i 77 -a 0 -x {6.2 4.1 -1 ------- null}
r -t 0.17668 -s 2 -d 3 -p cbr -e 210 -c 2 -i 71 -a 2 -x {1.0 6.0 36 ------- null}
+ -t 0.17668 -s 3 -d 4 -p cbr -e 210 -c 2 -i 71 -a 2 -x {1.0 6.0 36 ------- null}
- -t 0.17668 -s 3 -d 4 -p cbr -e 210 -c 2 -i 71 -a 2 -x {1.0 6.0 36 ------- null}
h -t 0.17668 -s 3 -d 4 -p cbr -e 210 -c 2 -i 71 -a 2 -x {1.0 6.0 -1 ------- null}
r -t 0.17834 -s 1 -d 2 -p cbr -e 210 -c 2 -i 78 -a 2 -x {1.0 6.0 42 ------- null}
+ -t 0.17834 -s 2 -d 3 -p cbr -e 210 -c 2 -i 78 -a 2 -x {1.0 6.0 42 ------- null}
- -t 0.17834 -s 2 -d 3 -p cbr -e 210 -c 2 -i 78 -a 2 -x {1.0 6.0 42 ------- null}
h -t 0.17834 -s 2 -d 3 -p cbr -e 210 -c 2 -i 78 -a 2 -x {1.0 6.0 -1 ------- null}
r -t 0.17961 -s 3 -d 4 -p cbr -e 210 -c 2 -i 66 -a 2 -x {1.0 6.0 31 ------- null}
+ -t 0.17961 -s 4 -d 6 -p cbr -e 210 -c 2 -i 66 -a 2 -x {1.0 6.0 31 ------- null}
- -t 0.17961 -s 4 -d 6 -p cbr -e 210 -c 2 -i 66 -a 2 -x {1.0 6.0 31 ------- null}
h -t 0.17961 -s 4 -d 6 -p cbr -e 210 -c 2 -i 66 -a 2 -x {1.0 6.0 -1 ------- null}
+ -t 0.18 -s 1 -d 2 -p cbr -e 210 -c 2 -i 84 -a 2 -x {1.0 6.0 48 ------- null}
- -t 0.18 -s 1 -d 2 -p cbr -e 210 -c 2 -i 84 -a 2 -x {1.0 6.0 48 ------- null}
h -t 0.18 -s 1 -d 2 -p cbr -e 210 -c 2 -i 84 -a 2 -x {1.0 6.0 -1 ------- null}
r -t 0.18043 -s 2 -d 3 -p cbr -e 210 -c 2 -i 72 -a 2 -x {1.0 6.0 37 ------- null}
+ -t 0.18043 -s 3 -d 4 -p cbr -e 210 -c 2 -i 72 -a 2 -x {1.0 6.0 37 ------- null}
- -t 0.18043 -s 3 -d 4 -p cbr -e 210 -c 2 -i 72 -a 2 -x {1.0 6.0 37 ------- null}
h -t 0.18043 -s 3 -d 4 -p cbr -e 210 -c 2 -i 72 -a 2 -x {1.0 6.0 -1 ------- null}
r -t 0.18209 -s 1 -d 2 -p cbr -e 210 -c 2 -i 79 -a 2 -x {1.0 6.0 43 ------- null}
+ -t 0.18209 -s 2 -d 3 -p cbr -e 210 -c 2 -i 79 -a 2 -x {1.0 6.0 43 ------- null}
- -t 0.18209 -s 2 -d 3 -p cbr -e 210 -c 2 -i 79 -a 2 -x {1.0 6.0 43 ------- null}
h -t 0.18209 -s 2 -d 3 -p cbr -e 210 -c 2 -i 79 -a 2 -x {1.0 6.0 -1 ------- null}
r -t 0.18336 -s 3 -d 4 -p cbr -e 210 -c 2 -i 67 -a 2 -x {1.0 6.0 32 ------- null}
+ -t 0.18336 -s 4 -d 6 -p cbr -e 210 -c 2 -i 67 -a 2 -x {1.0 6.0 32 ------- null}
- -t 0.18336 -s 4 -d 6 -p cbr -e 210 -c 2 -i 67 -a 2 -x {1.0 6.0 32 ------- null}
h -t 0.18336 -s 4 -d 6 -p cbr -e 210 -c 2 -i 67 -a 2 -x {1.0 6.0 -1 ------- null}
+ -t 0.18375 -s 1 -d 2 -p cbr -e 210 -c 2 -i 85 -a 2 -x {1.0 6.0 49 ------- null}
- -t 0.18375 -s 1 -d 2 -p cbr -e 210 -c 2 -i 85 -a 2 -x {1.0 6.0 49 ------- null}
h -t 0.18375 -s 1 -d 2 -p cbr -e 210 -c 2 -i 85 -a 2 -x {1.0 6.0 -1 ------- null}
r -t 0.18418 -s 2 -d 3 -p cbr -e 210 -c 2 -i 73 -a 2 -x {1.0 6.0 38 ------- null}
+ -t 0.18418 -s 3 -d 4 -p cbr -e 210 -c 2 -i 73 -a 2 -x {1.0 6.0 38 ------- null}
- -t 0.18418 -s 3 -d 4 -p cbr -e 210 -c 2 -i 73 -a 2 -x {1.0 6.0 38 ------- null}
h -t 0.18418 -s 3 -d 4 -p cbr -e 210 -c 2 -i 73 -a 2 -x {1.0 6.0 -1 ------- null}
r -t 0.18584 -s 1 -d 2 -p cbr -e 210 -c 2 -i 80 -a 2 -x {1.0 6.0 44 ------- null}
+ -t 0.18584 -s 2 -d 3 -p cbr -e 210 -c 2 -i 80 -a 2 -x {1.0 6.0 44 ------- null}
- -t 0.18584 -s 2 -d 3 -p cbr -e 210 -c 2 -i 80 -a 2 -x {1.0 6.0 44 ------- null}
h -t 0.18584 -s 2 -d 3 -p cbr -e 210 -c 2 -i 80 -a 2 -x {1.0 6.0 -1 ------- null}